                               Psi4 1.2.1 release

  ==> Input File <==

--------------------------------------------------------------------------
memory 2 GB

molecule methane {
0 1
 C    -0.000830   0.001644  -0.000431
 H    -0.675983   0.853982  -0.085819
 H    -0.394563  -0.833668  -0.580781
 H     0.083930  -0.291376   1.046762
 H     0.983044   0.277657  -0.381694
}

set basis 6-311++G(d,p)
energy, wfn = frequency('wb97x-d', return_wfn=True)
set hessian_write on
wfn.hessian().print_out()

--------------------------------------------------------------------------

    Molecular point group: c1
  Charge       = 0
  Multiplicity = 1
  Basis Set: 6-311++G(D,P)
    Blend: 6-311++G(D,P)
  Basis Set: (6-311++G(D,P) AUX)
    Blend: AUG-CC-PVTZ-JKFIT
  @DF-RKS Final Energy:   -40.51556449234224
    Total Energy =                        -40.5155644923422358
    Molecular point group: c1
  Basis Set: 6-311++G(D,P)
    Blend: 6-311++G(D,P)
  Basis Set: (6-311++G(D,P) AUX)
    Blend: AUG-CC-PVTZ-JKFIT
  Basis Set: 6-311++G(D,P)
    Blend: 6-311++G(D,P)
  Basis Set: (6-311++G(D,P) AUX)
    Blend: AUG-CC-PVTZ-JKFIT
  @DF-RKS Final Energy:   -40.51556210062667
    Total Energy =                        -40.5155621006266813
  Basis Set: 6-311++G(D,P)
    Blend: 6-311++G(D,P)
  Basis Set: (6-311++G(D,P) AUX)
    Blend: AUG-CC-PVTZ-JKFIT
  Basis Set: 6-311++G(D,P)
    Blend: 6-311++G(D,P)
  @DF-RKS Final Energy:   -40.51556184527160
    Total Energy =                        -40.5155618452716055
  @DF-RKS Final Energy:   -40.51556164227155
    Total Energy =                        -40.5155616422715497
  @DF-RKS Final Energy:   -40.51556184050707
    Total Energy =                        -40.5155618405070612
  @DF-RKS Final Energy:   -40.51556278568712
    Total Energy =                        -40.5155627856871234
  @DF-RKS Final Energy:   -40.51556313854177
    Total Energy =                        -40.5155631385417720
  @DF-RKS Final Energy:   -40.51556922175097
    Total Energy =                        -40.5155692217509653
  @DF-RKS Final Energy:   -40.51555361855632
    Total Energy =                        -40.5155536185563179
  @DF-RKS Final Energy:   -40.51555869302211
    Total Energy =                        -40.5155586930221077
  @DF-RKS Final Energy:   -40.51555365452967
    Total Energy =                        -40.5155536545296613
  @DF-RKS Final Energy:   -40.51555943356323
    Total Energy =                        -40.5155594335632259
  @DF-RKS Final Energy:   -40.51556338558247
    Total Energy =                        -40.5155633855824675
  @DF-RKS Final Energy:   -40.51556175450556
    Total Energy =                        -40.5155617545055620
  @DF-RKS Final Energy:   -40.51556117602107
    Total Energy =                        -40.5155611760210732
  @DF-RKS Final Energy:   -40.51556112985402
    Total Energy =                        -40.5155611298540208
  @DF-RKS Final Energy:   -40.51555828928838
    Total Energy =                        -40.5155582892883785
  @DF-RKS Final Energy:   -40.51554858485493
    Total Energy =                        -40.5155485848549475
  Basis Set: (6-311++G(D,P) AUX)
    Blend: AUG-CC-PVTZ-JKFIT
  Basis Set: 6-311++G(D,P)
    Blend: 6-311++G(D,P)
  Basis Set: (6-311++G(D,P) AUX)
    Blend: AUG-CC-PVTZ-JKFIT
  @DF-RKS Final Energy:   -40.51554831222585
    Total Energy =                        -40.5155483122258531
  Basis Set: 6-311++G(D,P)
    Blend: 6-311++G(D,P)
  Basis Set: (6-311++G(D,P) AUX)
    Blend: AUG-CC-PVTZ-JKFIT
    Molecular point group: c1
  Charge       = 0
  Multiplicity = 1
  Basis Set: 6-311++G(D,P)
    Blend: 6-311++G(D,P)
  Basis Set: (6-311++G(D,P) AUX)
    Blend: AUG-CC-PVTZ-JKFIT

    Orbital Energies [Eh]
    ---------------------

    Doubly Occupied:

       1A    -10.262720     2A     -0.791781     3A     -0.476822
       4A     -0.476793     5A     -0.476750

  @DF-RKS Final Energy:   -40.51556449252271

   => Energetics <=

    Nuclear Repulsion Energy =             13.4269279416290690
    One-Electron Energy =                 -79.8404223589637638
    Two-Electron Energy =                  30.4921508523190852
    DFT Exchange-Correlation Energy =      -4.5938219994728478
    Empirical Dispersion Energy =          -0.0003989280342514
    VV10 Nonlocal Energy =                  0.0000000000000000
    Total Energy =                        -40.5155644925227065

  Dipole Moment: [D]
     X:    -0.0001      Y:    -0.0000      Z:     0.0000     Total:     0.0001

    Molecular point group: c1

    Geometry (in Angstrom), charge = 0, multiplicity = 1:

       Center              X                  Y                   Z               Mass
    ------------   -----------------  -----------------  -----------------  -----------------
         C            0.000015842253    -0.000001194456    -0.000012070288    12.000000000000
         H           -0.675137157747     0.852336805544    -0.085400070288     1.007825032070
         H           -0.393717157747    -0.835313194456    -0.580362070288     1.007825032070
         H            0.084775842253    -0.293021194456     1.047180929712     1.007825032070
         H            0.983889842253     0.276011805544    -0.381275070288     1.007825032070

  Basis Set: 6-311++G(D,P)
    Blend: 6-311++G(D,P)
  Basis Set: (6-311++G(D,P) AUX)
    Blend: AUG-CC-PVTZ-JKFIT

  -Total Gradient:
     Atom            X                  Y                   Z
    ------   -----------------  -----------------  -----------------
       1        0.000018806306     0.000029387092    -0.000006544317
       2       -0.000022925594    -0.000001080612     0.000001536116
       3       -0.000061857172    -0.000023255200     0.000016155792
       4        0.000021889947     0.000014188038     0.000041793622
       5        0.000012714245     0.000013890763     0.000007087015

  Vibration                       7                   8                   9
  Freq [cm^-1]                1282.8180           1356.4413           1381.5971
  Irrep                           A                   A                   A
  Reduced mass [u]              1.1740              1.1797              1.1685
  Force const [mDyne/A]         1.1383              1.2789              1.3141

  Vibration                       10                  11                  12
  Freq [cm^-1]                1549.1438           1589.8383           3026.7793
  Irrep                           A                   A                   A
  Reduced mass [u]              1.0095              1.0188              1.0084
  Force const [mDyne/A]         1.4274              1.5173              5.4430

  Vibration                       13                  14                  15
  Freq [cm^-1]                3148.5180           3159.4569           3169.0735
  Irrep                           A                   A                   A
  Reduced mass [u]              1.1004              1.1028              1.0990
  Force const [mDyne/A]         6.4273              6.4861              6.5031

  ==> Thermochemistry Components <==

  Entropy, S
    Electronic S            0.000 [cal/(mol K)]        0.000 [J/(mol K)]       0.00000000 [mEh/K] (multiplicity = 1)
    Translational S        34.261 [cal/(mol K)]      143.349 [J/(mol K)]       0.05459886 [mEh/K] (mol. weight = 16.0313 [u], P = 101325.00 [Pa])
    Rotational S           15.061 [cal/(mol K)]       63.017 [J/(mol K)]       0.02400200 [mEh/K] (symmetry no. = 1)
    Vibrational S           0.088 [cal/(mol K)]        0.368 [J/(mol K)]       0.00014010 [mEh/K]
  Total S                  49.411 [cal/(mol K)]      206.734 [J/(mol K)]       0.07874097 [mEh/K]
  Correction S              0.000 [cal/(mol K)]        0.000 [J/(mol K)]       0.00000000 [mEh/K]

  Constant volume heat capacity, Cv
    Electronic Cv           0.000 [cal/(mol K)]        0.000 [J/(mol K)]       0.00000000 [mEh/K]
    Translational Cv        2.981 [cal/(mol K)]       12.472 [J/(mol K)]       0.00475022 [mEh/K]
    Rotational Cv           2.981 [cal/(mol K)]       12.472 [J/(mol K)]       0.00475022 [mEh/K]
    Vibrational Cv          0.510 [cal/(mol K)]        2.134 [J/(mol K)]       0.00081275 [mEh/K]
  Total Cv                  6.472 [cal/(mol K)]       27.077 [J/(mol K)]       0.01031319 [mEh/K]
  Correction Cv             0.000 [cal/(mol K)]        0.000 [J/(mol K)]       0.00000000 [mEh/K]

  Constant pressure heat capacity, Cp
    Electronic Cp           0.000 [cal/(mol K)]        0.000 [J/(mol K)]       0.00000000 [mEh/K]
    Translational Cp        4.968 [cal/(mol K)]       20.786 [J/(mol K)]       0.00791704 [mEh/K]
    Rotational Cp           2.981 [cal/(mol K)]       12.472 [J/(mol K)]       0.00475022 [mEh/K]
    Vibrational Cp          0.510 [cal/(mol K)]        2.134 [J/(mol K)]       0.00081275 [mEh/K]
  Total Cp                  8.459 [cal/(mol K)]       35.392 [J/(mol K)]       0.01348001 [mEh/K]
  Correction Cp             0.000 [cal/(mol K)]        0.000 [J/(mol K)]       0.00000000 [mEh/K]

  ==> Thermochemistry Energy Analysis <==

  Raw electronic energy, E0
  Total E0, Electronic energy at well bottom at 0 [K]                  -40.51556449 [Eh]

  Zero-point energy, ZPE_vib = Sum_i nu_i / 2
    Electronic ZPE          0.000 [kcal/mol]        0.000 [kJ/mol]       0.00000000 [Eh]
    Translational ZPE       0.000 [kcal/mol]        0.000 [kJ/mol]       0.00000000 [Eh]
    Rotational ZPE          0.000 [kcal/mol]        0.000 [kJ/mol]       0.00000000 [Eh]
    Vibrational ZPE        28.111 [kcal/mol]      117.615 [kJ/mol]       0.04479712 [Eh]        9831.830 [cm^-1]
  Correction ZPE           28.111 [kcal/mol]      117.615 [kJ/mol]       0.04479712 [Eh]        9831.830 [cm^-1]
  Total ZPE, Electronic energy at 0 [K]                                -40.47076737 [Eh]

  Thermal Energy, E (includes ZPE)
    Electronic E            0.000 [kcal/mol]        0.000 [kJ/mol]       0.00000000 [Eh]
    Translational E         0.889 [kcal/mol]        3.718 [kJ/mol]       0.00141628 [Eh]
    Rotational E            0.889 [kcal/mol]        3.718 [kJ/mol]       0.00141628 [Eh]
    Vibrational E          28.133 [kcal/mol]      117.710 [kJ/mol]       0.04483342 [Eh]
  Correction E             29.911 [kcal/mol]      125.147 [kJ/mol]       0.04766598 [Eh]
  Total E, Electronic energy at  298.15 [K]                            -40.46789852 [Eh]

  Enthalpy, H_trans = E_trans + k_B * T
    Electronic H            0.000 [kcal/mol]        0.000 [kJ/mol]       0.00000000 [Eh]
    Translational H         1.481 [kcal/mol]        6.197 [kJ/mol]       0.00236046 [Eh]
    Rotational H            0.889 [kcal/mol]        3.718 [kJ/mol]       0.00141628 [Eh]
    Vibrational H          28.133 [kcal/mol]      117.710 [kJ/mol]       0.04483342 [Eh]
  Correction H             30.503 [kcal/mol]      127.626 [kJ/mol]       0.04861016 [Eh]
  Total H, Enthalpy at  298.15 [K]                                     -40.46695433 [Eh]

  Gibbs free energy, G = H - T * S
    Electronic G            0.000 [kcal/mol]        0.000 [kJ/mol]       0.00000000 [Eh]
    Translational G        -8.734 [kcal/mol]      -36.542 [kJ/mol]      -0.01391819 [Eh]
    Rotational G           -3.602 [kcal/mol]      -15.070 [kJ/mol]      -0.00573992 [Eh]
    Vibrational G          28.107 [kcal/mol]      117.600 [kJ/mol]       0.04479165 [Eh]
  Correction G             15.772 [kcal/mol]       65.988 [kJ/mol]       0.02513354 [Eh]
  Total G, Free enthalpy at  298.15 [K]                                -40.49043095 [Eh]

*** Psi4 exiting successfully. Buy a developer a beer!
