                               Psi4 1.2.1 release

  ==> Input File <==

--------------------------------------------------------------------------
memory 2 GB

molecule methane {
 0 1
 C    -0.000830   0.001644  -0.000431
 H    -0.675983   0.853982  -0.085819
 H    -0.394563  -0.833668  -0.580781
 H     0.083930  -0.291376   1.046762
 H     0.983044   0.277657  -0.381694
}

set basis 6-311++G(d,p)
frequency('wb97x-d')
set hessian_write on
hessian('wb97x-d')
--------------------------------------------------------------------------

    Molecular point group: c1
  Charge       = 0
  Multiplicity = 1
  Basis Set: 6-311++G(D,P)
    Blend: 6-311++G(D,P)
  Basis Set: (6-311++G(D,P) AUX)
    Blend: AUG-CC-PVTZ-JKFIT
  @DF-RKS Final Energy:   -40.51556449234229
    Total Energy =                        -40.5155644923422713
    Molecular point group: c1
  Basis Set: 6-311++G(D,P)
    Blend: 6-311++G(D,P)
  Basis Set: (6-311++G(D,P) AUX)
    Blend: AUG-CC-PVTZ-JKFIT
  Basis Set: 6-311++G(D,P)
    Blend: 6-311++G(D,P)
  Basis Set: (6-311++G(D,P) AUX)
    Blend: AUG-CC-PVTZ-JKFIT
  @DF-RKS Final Energy:   -40.51556210062670
    Total Energy =                        -40.5155621006267097
  Basis Set: 6-311++G(D,P)
    Blend: 6-311++G(D,P)
  Basis Set: (6-311++G(D,P) AUX)
    Blend: AUG-CC-PVTZ-JKFIT
  Basis Set: 6-311++G(D,P)
    Blend: 6-311++G(D,P)
  @DF-RKS Final Energy:   -40.51556184527161
    Total Energy =                        -40.5155618452716126
  @DF-RKS Final Energy:   -40.51556164227155
    Total Energy =                        -40.5155616422715426
  @DF-RKS Final Energy:   -40.51556184050710
    Total Energy =                        -40.5155618405070967
  @DF-RKS Final Energy:   -40.51556278568717
    Total Energy =                        -40.5155627856871732
  @DF-RKS Final Energy:   -40.51556313854181
    Total Energy =                        -40.5155631385418147
  @DF-RKS Final Energy:   -40.51556922175097
    Total Energy =                        -40.5155692217509653
  @DF-RKS Final Energy:   -40.51555361855632
    Total Energy =                        -40.5155536185563179
  @DF-RKS Final Energy:   -40.51555869302211
    Total Energy =                        -40.5155586930221077
  @DF-RKS Final Energy:   -40.51555365452937
    Total Energy =                        -40.5155536545293700
  @DF-RKS Final Energy:   -40.51555943356330
    Total Energy =                        -40.5155594335633040
  @DF-RKS Final Energy:   -40.51556338558249
    Total Energy =                        -40.5155633855824888
  @DF-RKS Final Energy:   -40.51556175450554
    Total Energy =                        -40.5155617545055406
  @DF-RKS Final Energy:   -40.51556117602114
    Total Energy =                        -40.5155611760211372
  @DF-RKS Final Energy:   -40.51556112985401
    Total Energy =                        -40.5155611298540208
  @DF-RKS Final Energy:   -40.51555828928836
    Total Energy =                        -40.5155582892883643
  @DF-RKS Final Energy:   -40.51554858485493
    Total Energy =                        -40.5155485848549333
  @DF-RKS Final Energy:   -40.51554831222590
    Total Energy =                        -40.5155483122258957
  @DF-RKS Final Energy:   -40.51556449252267
    Total Energy =                        -40.5155644925226639

  Vibration                       7                   8                   9
  Freq [cm^-1]                1282.8170           1356.4416           1381.5960
  Irrep                           A                   A                   A
  Reduced mass [u]              1.1740              1.1797              1.1685
  Force const [mDyne/A]         1.1383              1.2789              1.3141

  Vibration                       10                  11                  12
  Freq [cm^-1]                1549.1437           1589.8392           3026.7787
  Irrep                           A                   A                   A
  Reduced mass [u]              1.0095              1.0189              1.0084
  Force const [mDyne/A]         1.4274              1.5173              5.4430

  Vibration                       13                  14                  15
  Freq [cm^-1]                3148.5177           3159.4574           3169.0716
  Irrep                           A                   A                   A
  Reduced mass [u]              1.1004              1.1028              1.0990
  Force const [mDyne/A]         6.4273              6.4861              6.5030

  ==> Thermochemistry Components <==

  Entropy, S
    Electronic S            0.000 [cal/(mol K)]        0.000 [J/(mol K)]       0.00000000 [mEh/K] (multiplicity = 1)
    Translational S        34.261 [cal/(mol K)]      143.349 [J/(mol K)]       0.05459886 [mEh/K] (mol. weight = 16.0313 [u], P = 101325.00 [Pa])
    Rotational S           15.061 [cal/(mol K)]       63.017 [J/(mol K)]       0.02400200 [mEh/K] (symmetry no. = 1)
    Vibrational S           0.088 [cal/(mol K)]        0.368 [J/(mol K)]       0.00014010 [mEh/K]
  Total S                  49.411 [cal/(mol K)]      206.734 [J/(mol K)]       0.07874097 [mEh/K]
  Correction S              0.000 [cal/(mol K)]        0.000 [J/(mol K)]       0.00000000 [mEh/K]

  Constant volume heat capacity, Cv
    Electronic Cv           0.000 [cal/(mol K)]        0.000 [J/(mol K)]       0.00000000 [mEh/K]
    Translational Cv        2.981 [cal/(mol K)]       12.472 [J/(mol K)]       0.00475022 [mEh/K]
    Rotational Cv           2.981 [cal/(mol K)]       12.472 [J/(mol K)]       0.00475022 [mEh/K]
    Vibrational Cv          0.510 [cal/(mol K)]        2.134 [J/(mol K)]       0.00081275 [mEh/K]
  Total Cv                  6.472 [cal/(mol K)]       27.077 [J/(mol K)]       0.01031320 [mEh/K]
  Correction Cv             0.000 [cal/(mol K)]        0.000 [J/(mol K)]       0.00000000 [mEh/K]

  Constant pressure heat capacity, Cp
    Electronic Cp           0.000 [cal/(mol K)]        0.000 [J/(mol K)]       0.00000000 [mEh/K]
    Translational Cp        4.968 [cal/(mol K)]       20.786 [J/(mol K)]       0.00791704 [mEh/K]
    Rotational Cp           2.981 [cal/(mol K)]       12.472 [J/(mol K)]       0.00475022 [mEh/K]
    Vibrational Cp          0.510 [cal/(mol K)]        2.134 [J/(mol K)]       0.00081275 [mEh/K]
  Total Cp                  8.459 [cal/(mol K)]       35.392 [J/(mol K)]       0.01348001 [mEh/K]
  Correction Cp             0.000 [cal/(mol K)]        0.000 [J/(mol K)]       0.00000000 [mEh/K]

  ==> Thermochemistry Energy Analysis <==

  Raw electronic energy, E0
  Total E0, Electronic energy at well bottom at 0 [K]                  -40.51556449 [Eh]

  Zero-point energy, ZPE_vib = Sum_i nu_i / 2
    Electronic ZPE          0.000 [kcal/mol]        0.000 [kJ/mol]       0.00000000 [Eh]
    Translational ZPE       0.000 [kcal/mol]        0.000 [kJ/mol]       0.00000000 [Eh]
    Rotational ZPE          0.000 [kcal/mol]        0.000 [kJ/mol]       0.00000000 [Eh]
    Vibrational ZPE        28.111 [kcal/mol]      117.615 [kJ/mol]       0.04479711 [Eh]        9831.828 [cm^-1]
  Correction ZPE           28.111 [kcal/mol]      117.615 [kJ/mol]       0.04479711 [Eh]        9831.828 [cm^-1]
  Total ZPE, Electronic energy at 0 [K]                                -40.47076738 [Eh]

  Thermal Energy, E (includes ZPE)
    Electronic E            0.000 [kcal/mol]        0.000 [kJ/mol]       0.00000000 [Eh]
    Translational E         0.889 [kcal/mol]        3.718 [kJ/mol]       0.00141628 [Eh]
    Rotational E            0.889 [kcal/mol]        3.718 [kJ/mol]       0.00141628 [Eh]
    Vibrational E          28.133 [kcal/mol]      117.710 [kJ/mol]       0.04483341 [Eh]
  Correction E             29.911 [kcal/mol]      125.147 [kJ/mol]       0.04766597 [Eh]
  Total E, Electronic energy at  298.15 [K]                            -40.46789852 [Eh]

  Enthalpy, H_trans = E_trans + k_B * T
    Electronic H            0.000 [kcal/mol]        0.000 [kJ/mol]       0.00000000 [Eh]
    Translational H         1.481 [kcal/mol]        6.197 [kJ/mol]       0.00236046 [Eh]
    Rotational H            0.889 [kcal/mol]        3.718 [kJ/mol]       0.00141628 [Eh]
    Vibrational H          28.133 [kcal/mol]      117.710 [kJ/mol]       0.04483341 [Eh]
  Correction H             30.503 [kcal/mol]      127.626 [kJ/mol]       0.04861016 [Eh]
  Total H, Enthalpy at  298.15 [K]                                     -40.46695434 [Eh]

  Gibbs free energy, G = H - T * S
    Electronic G            0.000 [kcal/mol]        0.000 [kJ/mol]       0.00000000 [Eh]
    Translational G        -8.734 [kcal/mol]      -36.542 [kJ/mol]      -0.01391819 [Eh]
    Rotational G           -3.602 [kcal/mol]      -15.070 [kJ/mol]      -0.00573992 [Eh]
    Vibrational G          28.107 [kcal/mol]      117.600 [kJ/mol]       0.04479164 [Eh]
  Correction G             15.772 [kcal/mol]       65.988 [kJ/mol]       0.02513354 [Eh]
  Total G, Free enthalpy at  298.15 [K]                                -40.49043096 [Eh]

    Irrep   Nso     Nmo     Nalpha   Nbeta   Ndocc  Nsocc

  @DF-RKS Final Energy:   -40.51556449314823
    Total Energy =                        -40.5155644931482328

    Irrep   Nso     Nmo     Nalpha   Nbeta   Ndocc  Nsocc

  @DF-RKS Final Energy:   -40.51556209985316
    Total Energy =                        -40.5155620998531631

    Irrep   Nso     Nmo     Nalpha   Nbeta   Ndocc  Nsocc

  @DF-RKS Final Energy:   -40.51556184476958
    Total Energy =                        -40.5155618447695716

    Irrep   Nso     Nmo     Nalpha   Nbeta   Ndocc  Nsocc

  @DF-RKS Final Energy:   -40.51556164327673
    Total Energy =                        -40.5155616432767403

    Irrep   Nso     Nmo     Nalpha   Nbeta   Ndocc  Nsocc

  @DF-RKS Final Energy:   -40.51556184089493
    Total Energy =                        -40.5155618408949323

    Irrep   Nso     Nmo     Nalpha   Nbeta   Ndocc  Nsocc

  @DF-RKS Final Energy:   -40.51556278501051
    Total Energy =                        -40.5155627850105162

    Irrep   Nso     Nmo     Nalpha   Nbeta   Ndocc  Nsocc

  @DF-RKS Final Energy:   -40.51556313790987
    Total Energy =                        -40.5155631379098651

    Irrep   Nso     Nmo     Nalpha   Nbeta   Ndocc  Nsocc

  @DF-RKS Final Energy:   -40.51556922227238
    Total Energy =                        -40.5155692222723758

    Irrep   Nso     Nmo     Nalpha   Nbeta   Ndocc  Nsocc

  @DF-RKS Final Energy:   -40.51555361925466
    Total Energy =                        -40.5155536192546606

    Irrep   Nso     Nmo     Nalpha   Nbeta   Ndocc  Nsocc

  @DF-RKS Final Energy:   -40.51555869292025
    Total Energy =                        -40.5155586929202514

    Irrep   Nso     Nmo     Nalpha   Nbeta   Ndocc  Nsocc

  @DF-RKS Final Energy:   -40.51555365543226
    Total Energy =                        -40.5155536554322566

    Irrep   Nso     Nmo     Nalpha   Nbeta   Ndocc  Nsocc

  @DF-RKS Final Energy:   -40.51555943327949
    Total Energy =                        -40.5155594332794919

    Irrep   Nso     Nmo     Nalpha   Nbeta   Ndocc  Nsocc

  @DF-RKS Final Energy:   -40.51556338524110
    Total Energy =                        -40.5155633852411015

    Irrep   Nso     Nmo     Nalpha   Nbeta   Ndocc  Nsocc

  @DF-RKS Final Energy:   -40.51556175403824
    Total Energy =                        -40.5155617540382380

    Irrep   Nso     Nmo     Nalpha   Nbeta   Ndocc  Nsocc

  @DF-RKS Final Energy:   -40.51556117656849
    Total Energy =                        -40.5155611765684895

    Irrep   Nso     Nmo     Nalpha   Nbeta   Ndocc  Nsocc

  @DF-RKS Final Energy:   -40.51556112988665
    Total Energy =                        -40.5155611298866489

    Irrep   Nso     Nmo     Nalpha   Nbeta   Ndocc  Nsocc

  @DF-RKS Final Energy:   -40.51555828878345
    Total Energy =                        -40.5155582887834527

    Irrep   Nso     Nmo     Nalpha   Nbeta   Ndocc  Nsocc

  @DF-RKS Final Energy:   -40.51554858578417
    Total Energy =                        -40.5155485857841811
  Basis Set: (6-311++G(D,P) AUX)
    Blend: AUG-CC-PVTZ-JKFIT
  Basis Set: 6-311++G(D,P)
    Blend: 6-311++G(D,P)

    Irrep   Nso     Nmo     Nalpha   Nbeta   Ndocc  Nsocc

  Basis Set: (6-311++G(D,P) AUX)
    Blend: AUG-CC-PVTZ-JKFIT
  @DF-RKS Final Energy:   -40.51554831180138
    Total Energy =                        -40.5155483118013748
  Basis Set: 6-311++G(D,P)
    Blend: 6-311++G(D,P)
  Basis Set: (6-311++G(D,P) AUX)
    Blend: AUG-CC-PVTZ-JKFIT
    Molecular point group: c1
  Charge       = 0
  Multiplicity = 1
  Basis Set: 6-311++G(D,P)
    Blend: 6-311++G(D,P)

    Irrep   Nso     Nmo     Nalpha   Nbeta   Ndocc  Nsocc

  Basis Set: (6-311++G(D,P) AUX)
    Blend: AUG-CC-PVTZ-JKFIT

    Orbital Energies [Eh]
    ---------------------

    Doubly Occupied:

       1A    -10.262720     2A     -0.791781     3A     -0.476822
       4A     -0.476793     5A     -0.476750

  @DF-RKS Final Energy:   -40.51556449310188

   => Energetics <=

    Nuclear Repulsion Energy =             13.4269279416290690
    One-Electron Energy =                 -79.8404223356450444
    Two-Electron Energy =                  30.4921508243180988
    DFT Exchange-Correlation Energy =      -4.5938219953697557
    Empirical Dispersion Energy =          -0.0003989280342514
    VV10 Nonlocal Energy =                  0.0000000000000000
    Total Energy =                        -40.5155644931018770

  Dipole Moment: [D]
     X:    -0.0001      Y:    -0.0000      Z:     0.0000     Total:     0.0001

    Molecular point group: c1

    Geometry (in Angstrom), charge = 0, multiplicity = 1:

       Center              X                  Y                   Z               Mass
    ------------   -----------------  -----------------  -----------------  -----------------
         C            0.000015842253    -0.000001194456    -0.000012070288    12.000000000000
         H           -0.675137157747     0.852336805544    -0.085400070288     1.007825032070
         H           -0.393717157747    -0.835313194456    -0.580362070288     1.007825032070
         H            0.084775842253    -0.293021194456     1.047180929712     1.007825032070
         H            0.983889842253     0.276011805544    -0.381275070288     1.007825032070

  Basis Set: 6-311++G(D,P)
    Blend: 6-311++G(D,P)
  Basis Set: (6-311++G(D,P) AUX)
    Blend: AUG-CC-PVTZ-JKFIT

  -Total Gradient:
     Atom            X                  Y                   Z
    ------   -----------------  -----------------  -----------------
       1        0.000018805251     0.000029387266    -0.000006544259
       2       -0.000022925189    -0.000001081222     0.000001536092
       3       -0.000061856811    -0.000023254639     0.000016155928
       4        0.000021889828     0.000014187879     0.000041794046
       5        0.000012714654     0.000013890797     0.000007086424

*** Psi4 exiting successfully. Buy a developer a beer!
