                               Psi4 1.2.1 release

  ==> Input File <==

--------------------------------------------------------------------------
memory 2 GB

molecule ethane {
 0 1
 C    -0.763553   0.023759  -0.024208
 C     0.761194  -0.016544   0.026481
 H    -1.196648  -0.075058   0.974706
 H    -1.121746   0.965730  -0.447904
 H    -1.161603  -0.787965  -0.638829
 H     1.159172   0.795130   0.641202
 H     1.194349   0.082419  -0.972394
 H     1.119417  -0.958543   0.450087
}

set basis 6-311++G(d,p)
frequency('wb97x-d')
set hessian_write on
hessian('wb97x-d')
--------------------------------------------------------------------------

    Molecular point group: c1
  Charge       = 0
  Multiplicity = 1
  Basis Set: 6-311++G(D,P)
    Blend: 6-311++G(D,P)
  Basis Set: (6-311++G(D,P) AUX)
    Blend: AUG-CC-PVTZ-JKFIT
  @DF-RKS Final Energy:   -79.82518642047673
    Total Energy =                        -79.8251864204767259
    Molecular point group: c1
  Basis Set: 6-311++G(D,P)
    Blend: 6-311++G(D,P)
  Basis Set: (6-311++G(D,P) AUX)
    Blend: AUG-CC-PVTZ-JKFIT
  Basis Set: 6-311++G(D,P)
    Blend: 6-311++G(D,P)
  Basis Set: (6-311++G(D,P) AUX)
    Blend: AUG-CC-PVTZ-JKFIT
  @DF-RKS Final Energy:   -79.82518552791879
    Total Energy =                        -79.8251855279187765
  Basis Set: 6-311++G(D,P)
    Blend: 6-311++G(D,P)
  Basis Set: (6-311++G(D,P) AUX)
    Blend: AUG-CC-PVTZ-JKFIT
  Basis Set: 6-311++G(D,P)
    Blend: 6-311++G(D,P)
  @DF-RKS Final Energy:   -79.82518563720889
    Total Energy =                        -79.8251856372088895
  @DF-RKS Final Energy:   -79.82518453628167
    Total Energy =                        -79.8251845362816539
  @DF-RKS Final Energy:   -79.82518471258155
    Total Energy =                        -79.8251847125815459
  @DF-RKS Final Energy:   -79.82518416120952
    Total Energy =                        -79.8251841612095205
  @DF-RKS Final Energy:   -79.82518493305966
    Total Energy =                        -79.8251849330596599
  @DF-RKS Final Energy:   -79.82518514144451
    Total Energy =                        -79.8251851414445071
  @DF-RKS Final Energy:   -79.82518509921321
    Total Energy =                        -79.8251850992132006
  @DF-RKS Final Energy:   -79.82518429220185
    Total Energy =                        -79.8251842922018398
  @DF-RKS Final Energy:   -79.82518416976629
    Total Energy =                        -79.8251841697662883
  @DF-RKS Final Energy:   -79.82518441897612
    Total Energy =                        -79.8251844189761215
  @DF-RKS Final Energy:   -79.82518389201972
    Total Energy =                        -79.8251838920197230
  @DF-RKS Final Energy:   -79.82518084291027
    Total Energy =                        -79.8251808429102709
  @DF-RKS Final Energy:   -79.82518270578801
    Total Energy =                        -79.8251827057880234
  @DF-RKS Final Energy:   -79.82517616915057
    Total Energy =                        -79.8251761691505664
  @DF-RKS Final Energy:   -79.82518499746551
    Total Energy =                        -79.8251849974655130
  @DF-RKS Final Energy:   -79.82515998520336
    Total Energy =                        -79.8251599852033564
  @DF-RKS Final Energy:   -79.82517858648882
    Total Energy =                        -79.8251785864888177
  @DF-RKS Final Energy:   -79.82516717746832
    Total Energy =                        -79.8251671774683160

  Vibration                       7                   8                   9
  Freq [cm^-1]                 55.9365             749.1876            797.8925
  Irrep                           A                   A                   A
  Reduced mass [u]              1.0114              1.0785              1.0607
  Force const [mDyne/A]         0.0019              0.3567              0.3978

  Vibration                       10                  11                  12
  Freq [cm^-1]                1016.9669           1193.5280           1257.5812
  Irrep                           A                   A                   A
  Reduced mass [u]              2.9227              1.4868              1.4137
  Force const [mDyne/A]         1.7809              1.2478              1.3173

  Vibration                       13                  14                  15
  Freq [cm^-1]                1408.0830           1434.3468           1451.5103
  Irrep                           A                   A                   A
  Reduced mass [u]              1.1976              1.1755              1.0926
  Force const [mDyne/A]         1.3990              1.4249              1.3563

  Vibration                       16                  17                  18
  Freq [cm^-1]                1485.7439           1584.9554           1623.9825
  Irrep                           A                   A                   A
  Reduced mass [u]              1.0786              1.0611              1.0232
  Force const [mDyne/A]         1.4029              1.5705              1.5900

  Vibration                       19                  20                  21
  Freq [cm^-1]                3033.3333           3043.0127           3087.9757
  Irrep                           A                   A                   A
  Reduced mass [u]              1.0379              1.0348              1.0966
  Force const [mDyne/A]         5.6267              5.6459              6.1611

  Vibration                       22                  23                  24
  Freq [cm^-1]                3121.8247           3121.9557           3136.6742
  Irrep                           A                   A                   A
  Reduced mass [u]              1.1034              1.1009              1.1037
  Force const [mDyne/A]         6.3360              6.3218              6.3978

  ==> Thermochemistry Components <==

  Entropy, S
    Electronic S            0.000 [cal/(mol K)]        0.000 [J/(mol K)]       0.00000000 [mEh/K] (multiplicity = 1)
    Translational S        36.134 [cal/(mol K)]      151.184 [J/(mol K)]       0.05758303 [mEh/K] (mol. weight = 30.0470 [u], P = 101325.00 [Pa])
    Rotational S           19.838 [cal/(mol K)]       83.002 [J/(mol K)]       0.03161376 [mEh/K] (symmetry no. = 1)
    Vibrational S           5.295 [cal/(mol K)]       22.154 [J/(mol K)]       0.00843811 [mEh/K]
  Total S                  61.267 [cal/(mol K)]      256.340 [J/(mol K)]       0.09763490 [mEh/K]
  Correction S              0.000 [cal/(mol K)]        0.000 [J/(mol K)]       0.00000000 [mEh/K]

  Constant volume heat capacity, Cv
    Electronic Cv           0.000 [cal/(mol K)]        0.000 [J/(mol K)]       0.00000000 [mEh/K]
    Translational Cv        2.981 [cal/(mol K)]       12.472 [J/(mol K)]       0.00475022 [mEh/K]
    Rotational Cv           2.981 [cal/(mol K)]       12.472 [J/(mol K)]       0.00475022 [mEh/K]
    Vibrational Cv          4.575 [cal/(mol K)]       19.141 [J/(mol K)]       0.00729043 [mEh/K]
  Total Cv                 10.536 [cal/(mol K)]       44.084 [J/(mol K)]       0.01679087 [mEh/K]
  Correction Cv             0.000 [cal/(mol K)]        0.000 [J/(mol K)]       0.00000000 [mEh/K]

  Constant pressure heat capacity, Cp
    Electronic Cp           0.000 [cal/(mol K)]        0.000 [J/(mol K)]       0.00000000 [mEh/K]
    Translational Cp        4.968 [cal/(mol K)]       20.786 [J/(mol K)]       0.00791704 [mEh/K]
    Rotational Cp           2.981 [cal/(mol K)]       12.472 [J/(mol K)]       0.00475022 [mEh/K]
    Vibrational Cp          4.575 [cal/(mol K)]       19.141 [J/(mol K)]       0.00729043 [mEh/K]
  Total Cp                 12.524 [cal/(mol K)]       52.399 [J/(mol K)]       0.01995769 [mEh/K]
  Correction Cp             0.000 [cal/(mol K)]        0.000 [J/(mol K)]       0.00000000 [mEh/K]

  ==> Thermochemistry Energy Analysis <==

  Raw electronic energy, E0
  Total E0, Electronic energy at well bottom at 0 [K]                  -79.82518642 [Eh]

  Zero-point energy, ZPE_vib = Sum_i nu_i / 2
    Electronic ZPE          0.000 [kcal/mol]        0.000 [kJ/mol]       0.00000000 [Eh]
    Translational ZPE       0.000 [kcal/mol]        0.000 [kJ/mol]       0.00000000 [Eh]
    Rotational ZPE          0.000 [kcal/mol]        0.000 [kJ/mol]       0.00000000 [Eh]
    Vibrational ZPE        46.610 [kcal/mol]      195.018 [kJ/mol]       0.07427848 [Eh]       16302.240 [cm^-1]
  Correction ZPE           46.610 [kcal/mol]      195.018 [kJ/mol]       0.07427848 [Eh]       16302.240 [cm^-1]
  Total ZPE, Electronic energy at 0 [K]                                -79.75090794 [Eh]

  Thermal Energy, E (includes ZPE)
    Electronic E            0.000 [kcal/mol]        0.000 [kJ/mol]       0.00000000 [Eh]
    Translational E         0.889 [kcal/mol]        3.718 [kJ/mol]       0.00141628 [Eh]
    Rotational E            0.889 [kcal/mol]        3.718 [kJ/mol]       0.00141628 [Eh]
    Vibrational E          47.296 [kcal/mol]      197.886 [kJ/mol]       0.07537061 [Eh]
  Correction E             49.073 [kcal/mol]      205.322 [kJ/mol]       0.07820317 [Eh]
  Total E, Electronic energy at  298.15 [K]                            -79.74698325 [Eh]

  Enthalpy, H_trans = E_trans + k_B * T
    Electronic H            0.000 [kcal/mol]        0.000 [kJ/mol]       0.00000000 [Eh]
    Translational H         1.481 [kcal/mol]        6.197 [kJ/mol]       0.00236046 [Eh]
    Rotational H            0.889 [kcal/mol]        3.718 [kJ/mol]       0.00141628 [Eh]
    Vibrational H          47.296 [kcal/mol]      197.886 [kJ/mol]       0.07537061 [Eh]
  Correction H             49.666 [kcal/mol]      207.801 [kJ/mol]       0.07914736 [Eh]
  Total H, Enthalpy at  298.15 [K]                                     -79.74603906 [Eh]

  Gibbs free energy, G = H - T * S
    Electronic G            0.000 [kcal/mol]        0.000 [kJ/mol]       0.00000000 [Eh]
    Translational G        -9.292 [kcal/mol]      -38.878 [kJ/mol]      -0.01480792 [Eh]
    Rotational G           -5.026 [kcal/mol]      -21.029 [kJ/mol]      -0.00800936 [Eh]
    Vibrational G          45.717 [kcal/mol]      191.280 [kJ/mol]       0.07285479 [Eh]
  Correction G             31.399 [kcal/mol]      131.373 [kJ/mol]       0.05003751 [Eh]
  Total G, Free enthalpy at  298.15 [K]                                -79.77514891 [Eh]

    Irrep   Nso     Nmo     Nalpha   Nbeta   Ndocc  Nsocc

    Irrep   Nso     Nmo     Nalpha   Nbeta   Ndocc  Nsocc

    Irrep   Nso     Nmo     Nalpha   Nbeta   Ndocc  Nsocc

    Irrep   Nso     Nmo     Nalpha   Nbeta   Ndocc  Nsocc

    Irrep   Nso     Nmo     Nalpha   Nbeta   Ndocc  Nsocc

    Irrep   Nso     Nmo     Nalpha   Nbeta   Ndocc  Nsocc

    Irrep   Nso     Nmo     Nalpha   Nbeta   Ndocc  Nsocc

    Irrep   Nso     Nmo     Nalpha   Nbeta   Ndocc  Nsocc

    Irrep   Nso     Nmo     Nalpha   Nbeta   Ndocc  Nsocc

    Irrep   Nso     Nmo     Nalpha   Nbeta   Ndocc  Nsocc

    Irrep   Nso     Nmo     Nalpha   Nbeta   Ndocc  Nsocc

    Irrep   Nso     Nmo     Nalpha   Nbeta   Ndocc  Nsocc

    Irrep   Nso     Nmo     Nalpha   Nbeta   Ndocc  Nsocc

    Irrep   Nso     Nmo     Nalpha   Nbeta   Ndocc  Nsocc

    Irrep   Nso     Nmo     Nalpha   Nbeta   Ndocc  Nsocc

    Irrep   Nso     Nmo     Nalpha   Nbeta   Ndocc  Nsocc

    Irrep   Nso     Nmo     Nalpha   Nbeta   Ndocc  Nsocc

    Irrep   Nso     Nmo     Nalpha   Nbeta   Ndocc  Nsocc

    Irrep   Nso     Nmo     Nalpha   Nbeta   Ndocc  Nsocc

  @DF-RKS Final Energy:   -79.82517858648878
    Total Energy =                        -79.8251785864887751

    Irrep   Nso     Nmo     Nalpha   Nbeta   Ndocc  Nsocc

  @DF-RKS Final Energy:   -79.82516717746829
    Total Energy =                        -79.8251671774682876

    Irrep   Nso     Nmo     Nalpha   Nbeta   Ndocc  Nsocc

  @DF-RKS Final Energy:   -79.82518482417143
    Total Energy =                        -79.8251848241714441

    Irrep   Nso     Nmo     Nalpha   Nbeta   Ndocc  Nsocc

  @DF-RKS Final Energy:   -79.82518335849501
    Total Energy =                        -79.8251833584950106

    Irrep   Nso     Nmo     Nalpha   Nbeta   Ndocc  Nsocc

  @DF-RKS Final Energy:   -79.82516650277583
    Total Energy =                        -79.8251665027758293

    Irrep   Nso     Nmo     Nalpha   Nbeta   Ndocc  Nsocc

  @DF-RKS Final Energy:   -79.82517751228717
    Total Energy =                        -79.8251775122871550

    Irrep   Nso     Nmo     Nalpha   Nbeta   Ndocc  Nsocc

  @DF-RKS Final Energy:   -79.82517033038579
    Total Energy =                        -79.8251703303857880

    Irrep   Nso     Nmo     Nalpha   Nbeta   Ndocc  Nsocc

  @DF-RKS Final Energy:   -79.82518460231574
    Total Energy =                        -79.8251846023157441

    Irrep   Nso     Nmo     Nalpha   Nbeta   Ndocc  Nsocc

  @DF-RKS Final Energy:   -79.82518419753895
    Total Energy =                        -79.8251841975389596

    Irrep   Nso     Nmo     Nalpha   Nbeta   Ndocc  Nsocc

  @DF-RKS Final Energy:   -79.82517934350186
    Total Energy =                        -79.8251793435018442

    Irrep   Nso     Nmo     Nalpha   Nbeta   Ndocc  Nsocc

  @DF-RKS Final Energy:   -79.82517559462434
    Total Energy =                        -79.8251755946243406

    Irrep   Nso     Nmo     Nalpha   Nbeta   Ndocc  Nsocc

  @DF-RKS Final Energy:   -79.82517580110257
    Total Energy =                        -79.8251758011025601

    Irrep   Nso     Nmo     Nalpha   Nbeta   Ndocc  Nsocc

  @DF-RKS Final Energy:   -79.82518338464673
    Total Energy =                        -79.8251833846467349

    Irrep   Nso     Nmo     Nalpha   Nbeta   Ndocc  Nsocc

  @DF-RKS Final Energy:   -79.82517532834738
    Total Energy =                        -79.8251753283473988

    Irrep   Nso     Nmo     Nalpha   Nbeta   Ndocc  Nsocc

  @DF-RKS Final Energy:   -79.82517797830101
    Total Energy =                        -79.8251779783010136

    Irrep   Nso     Nmo     Nalpha   Nbeta   Ndocc  Nsocc

  @DF-RKS Final Energy:   -79.82517534098179
    Total Energy =                        -79.8251753409818008

    Irrep   Nso     Nmo     Nalpha   Nbeta   Ndocc  Nsocc

  @DF-RKS Final Energy:   -79.82515521075551
    Total Energy =                        -79.8251552107555113

    Irrep   Nso     Nmo     Nalpha   Nbeta   Ndocc  Nsocc

  @DF-RKS Final Energy:   -79.82516069837942
    Total Energy =                        -79.8251606983794204
  Basis Set: (6-311++G(D,P) AUX)
    Blend: AUG-CC-PVTZ-JKFIT
  Basis Set: 6-311++G(D,P)
    Blend: 6-311++G(D,P)

    Irrep   Nso     Nmo     Nalpha   Nbeta   Ndocc  Nsocc

  Basis Set: (6-311++G(D,P) AUX)
    Blend: AUG-CC-PVTZ-JKFIT
  @DF-RKS Final Energy:   -79.82516382503209
    Total Energy =                        -79.8251638250320923
  Basis Set: 6-311++G(D,P)
    Blend: 6-311++G(D,P)
  Basis Set: (6-311++G(D,P) AUX)
    Blend: AUG-CC-PVTZ-JKFIT
    Molecular point group: c1
  Charge       = 0
  Multiplicity = 1
  Basis Set: 6-311++G(D,P)
    Blend: 6-311++G(D,P)

    Irrep   Nso     Nmo     Nalpha   Nbeta   Ndocc  Nsocc

  Basis Set: (6-311++G(D,P) AUX)
    Blend: AUG-CC-PVTZ-JKFIT

    Orbital Energies [Eh]
    ---------------------

    Doubly Occupied:

       1A    -10.268981     2A    -10.268754     3A     -0.852307
       4A     -0.710360     5A     -0.521673     6A     -0.521626
       7A     -0.451307     8A     -0.424465     9A     -0.424433

  @DF-RKS Final Energy:   -79.82518642046841

   => Energetics <=

    Nuclear Repulsion Energy =             42.2302173765083140
    One-Electron Energy =                -189.3155638876224884
    Two-Electron Energy =                  76.0520397518344708
    DFT Exchange-Correlation Energy =      -8.7900177471966572
    Empirical Dispersion Energy =          -0.0018619139920408
    VV10 Nonlocal Energy =                  0.0000000000000000
    Total Energy =                        -79.8251864204684125

  Dipole Moment: [D]
     X:     0.0000      Y:     0.0000      Z:     0.0000     Total:     0.0000

    Molecular point group: c1

    Geometry (in Angstrom), charge = 0, multiplicity = 1:

       Center              X                  Y                   Z               Mass
    ------------   -----------------  -----------------  -----------------  -----------------
         C           -0.762374103750     0.020149219166    -0.025346143542    12.000000000000
         C            0.762372896250    -0.020153780834     0.025342856458    12.000000000000
         H           -1.195469103750    -0.078667780834     0.973567856458     1.007825032070
         H           -1.120567103750     0.962120219166    -0.449042143542     1.007825032070
         H           -1.160424103750    -0.791574780834    -0.639967143542     1.007825032070
         H            1.160350896250     0.791520219166     0.640063856458     1.007825032070
         H            1.195527896250     0.078809219166    -0.973532143542     1.007825032070
         H            1.120595896250    -0.962152780834     0.448948856458     1.007825032070

  Basis Set: 6-311++G(D,P)
    Blend: 6-311++G(D,P)
  Basis Set: (6-311++G(D,P) AUX)
    Blend: AUG-CC-PVTZ-JKFIT

  -Total Gradient:
     Atom            X                  Y                   Z
    ------   -----------------  -----------------  -----------------
       1        0.000012355559     0.000034374655     0.000050335825
       2       -0.000013287260    -0.000034436294    -0.000047264877
       3        0.000019972185     0.000024736493     0.000025733141
       4       -0.000008684162     0.000014115041     0.000055800945
       5       -0.000004929724    -0.000029439037     0.000024782513
       6        0.000000044948     0.000026799494    -0.000027713208
       7       -0.000015746330    -0.000022400015    -0.000024611588
       8        0.000010082870    -0.000013634463    -0.000056781781

*** Psi4 exiting successfully. Buy a developer a beer!
